graphene                                
           1
    16.799999    0.000000    0.000000
     0.000000    9.699485    0.000000
     0.000000    0.000000    2.000000
   C    Li
  62   1
Direct configuration=     1
   0.00000000  0.00000000  0.50000000
   0.04166667  0.12500000  0.50000000
   0.12500000  0.12500000  0.50000000
   0.16666667  0.00000000  0.50000000
   0.25000000  0.00000000  0.50000000
   0.29166666  0.12500000  0.50000000
   0.37500000  0.12500000  0.50000000
   0.41666666  0.00000000  0.50000000
   0.50000000  0.00000000  0.50000000
   0.54166669  0.12500000  0.50000000
   0.62500000  0.12500000  0.50000000
   0.66666669  0.00000000  0.50000000
   0.75000000  0.00000000  0.50000000
   0.79166669  0.12500000  0.50000000
   0.87500000  0.12500000  0.50000000
   0.91666669  0.00000000  0.50000000
   0.00000000  0.25000000  0.50000000
   0.04166667  0.37500000  0.50000000
   0.12500000  0.37500000  0.50000000
   0.16666667  0.25000000  0.50000000
   0.25000000  0.25000000  0.50000000
   0.31999999  0.37500000  0.50000000
   0.41666666  0.28999999  0.50000000
   0.50000000  0.25000000  0.50000000
   0.54166669  0.37500000  0.50000000
   0.62500000  0.37500000  0.50000000
   0.66666669  0.25000000  0.50000000
   0.75000000  0.25000000  0.50000000
   0.79166669  0.37500000  0.50000000
   0.87500000  0.37500000  0.50000000
   0.91666669  0.25000000  0.50000000
   0.00000000  0.50000000  0.50000000
   0.04166667  0.62500000  0.50000000
   0.12500000  0.62500000  0.50000000
   0.16666667  0.50000000  0.50000000
   0.25000000  0.50000000  0.50000000
   0.29166666  0.62500000  0.50000000
   0.37999999  0.58999997  0.50000000
   0.47499999  0.50000000  0.50000000
   0.54166669  0.62500000  0.50000000
   0.62500000  0.62500000  0.50000000
   0.66666669  0.50000000  0.50000000
   0.75000000  0.50000000  0.50000000
   0.79166669  0.62500000  0.50000000
   0.87500000  0.62500000  0.50000000
   0.91666669  0.50000000  0.50000000
   0.00000000  0.75000000  0.50000000
   0.04166667  0.87500000  0.50000000
   0.12500000  0.87500000  0.50000000
   0.16666667  0.75000000  0.50000000
   0.25000000  0.75000000  0.50000000
   0.29166666  0.87500000  0.50000000
   0.37500000  0.87500000  0.50000000
   0.41666666  0.75000000  0.50000000
   0.50000000  0.75000000  0.50000000
   0.54166669  0.87500000  0.50000000
   0.62500000  0.87500000  0.50000000
   0.66666669  0.75000000  0.50000000
   0.75000000  0.75000000  0.50000000
   0.79166669  0.87500000  0.50000000
   0.87500000  0.87500000  0.50000000
   0.91666669  0.75000000  0.50000000
   0.39750001  0.44000000  0.50000000
Direct configuration=     2
  -0.00038884 -0.00026684  0.50000000
   0.04212544  0.12643985  0.50000000
   0.12451706  0.12629653  0.50000000
   0.16636969 -0.00035060  0.50000000
   0.25042753  0.00111024  0.50000000
   0.29073198  0.12250127  0.50000000
   0.37749811  0.14999923  0.50000000
   0.41681248  0.00238201  0.50000000
   0.50054081  0.00039216  0.50000000
   0.54012592  0.12601305  0.50000000
   0.62339718  0.12591027  0.50000000
   0.66725027 -0.00046800  0.50000000
   0.74932307  0.00002958  0.50000000
   0.79213592  0.12661065  0.50000000
   0.87404436  0.12603479  0.50000000
   0.91666484 -0.00039208  0.50000000
  -0.00079336  0.24996217  0.50000000
   0.04252579  0.37310839  0.50000000
   0.12348384  0.37398427  0.50000000
   0.16816979  0.25340649  0.50000000
   0.26199284  0.26156050  0.50000000
   0.28402841  0.35165035  0.50000000
   0.41477260  0.22806849  0.50000000
   0.49928308  0.25444817  0.50000000
   0.53775286  0.38278443  0.50000000
   0.62332051  0.37698401  0.50000000
   0.66731213  0.25068799  0.50000000
   0.74978361  0.24933418  0.50000000
   0.79233026  0.37330645  0.50000000
   0.87426977  0.37360898  0.50000000
   0.91720716  0.25030335  0.50000000
  -0.00029289  0.50009756  0.50000000
   0.04180688  0.62688970  0.50000000
   0.12403233  0.62548280  0.50000000
   0.16743898  0.49673997  0.50000000
   0.25602998  0.49077728  0.50000000
   0.29666860  0.62206083  0.50000000
   0.37616921  0.65781983  0.50000000
   0.51882355  0.52168682  0.50000000
   0.53074675  0.61493944  0.50000000
   0.62295916  0.62297626  0.50000000
   0.66722964  0.49936391  0.50000000
   0.74952913  0.50023534  0.50000000
   0.79245261  0.62628145  0.50000000
   0.87394656  0.62584043  0.50000000
   0.91648422  0.49980686  0.50000000
  -0.00037386  0.74953551  0.50000000
   0.04268406  0.87337087  0.50000000
   0.12347930  0.87371381  0.50000000
   0.16757296  0.75025300  0.50000000
   0.25138278  0.75008557  0.50000000
   0.29161224  0.87318570  0.50000000
   0.37371688  0.87081002  0.50000000
   0.41449640  0.72720267  0.50000000
   0.50137161  0.75455552  0.50000000
   0.54170458  0.87199477  0.50000000
   0.62449810  0.87380335  0.50000000
   0.66658884  0.74993282  0.50000000
   0.74966144  0.74973524  0.50000000
   0.79239788  0.87354039  0.50000000
   0.87412597  0.87378072  0.50000000
   0.91702683  0.75012694  0.50000000
   0.39451445  0.43793425  0.50000000
Direct configuration=     3
  -0.00007600 -0.00005215  0.50000000
   0.04175633  0.12528141  0.50000000
   0.12490561  0.12525340  0.50000000
   0.16660863 -0.00006852  0.50000000
   0.25008356  0.00021699  0.50000000
   0.29148398  0.12451163  0.50000000
   0.37548824  0.12988598  0.50000000
   0.41669516  0.00046555  0.50000000
   0.50010570  0.00007665  0.50000000
   0.54136555  0.12519800  0.50000000
   0.62468674  0.12517791  0.50000000
   0.66678075 -0.00009147  0.50000000
   0.74986770  0.00000578  0.50000000
   0.79175840  0.12531479  0.50000000
   0.87481322  0.12520224  0.50000000
   0.91666633 -0.00007663  0.50000000
  -0.00015506  0.24999261  0.50000000
   0.04183458  0.37463029  0.50000000
   0.12470367  0.37480148  0.50000000
   0.16696045  0.25066578  0.50000000
   0.25234394  0.25225944  0.50000000
   0.31296952  0.37043642  0.50000000
   0.41629647  0.27789578  0.50000000
   0.49985988  0.25086937  0.50000000
   0.54090175  0.37652143  0.50000000
   0.62467175  0.37538777  0.50000000
   0.66679284  0.25013447  0.50000000
   0.74995771  0.24986987  0.50000000
   0.79179638  0.37466900  0.50000000
   0.87485728  0.37472813  0.50000000
   0.91677232  0.25005929  0.50000000
  -0.00005724  0.50001907  0.50000000
   0.04169407  0.62536933  0.50000000
   0.12481087  0.62509436  0.50000000
   0.16681762  0.49936284  0.50000000
   0.25117853  0.49819746  0.50000000
   0.29264426  0.62442555  0.50000000
   0.37925129  0.60325504  0.50000000
   0.48356510  0.50423859  0.50000000
   0.53953244  0.62303371  0.50000000
   0.62460113  0.62460447  0.50000000
   0.66677671  0.49987568  0.50000000
   0.74990797  0.50004600  0.50000000
   0.79182029  0.62525045  0.50000000
   0.87479411  0.62516426  0.50000000
   0.91663103  0.49996225  0.50000000
  -0.00007307  0.74990922  0.50000000
   0.04186551  0.87468159  0.50000000
   0.12470279  0.87474862  0.50000000
   0.16684380  0.75004945  0.50000000
   0.25027026  0.75001672  0.50000000
   0.29165602  0.87464540  0.50000000
   0.37474922  0.87418109  0.50000000
   0.41624249  0.74554437  0.50000000
   0.50026808  0.75089035  0.50000000
   0.54167409  0.87441264  0.50000000
   0.62490191  0.87476612  0.50000000
   0.66665147  0.74998687  0.50000000
   0.74993383  0.74994825  0.50000000
   0.79180959  0.87471473  0.50000000
   0.87482917  0.87476170  0.50000000
   0.91673708  0.75002481  0.50000000
   0.39691649  0.43959626  0.50000000
Direct configuration=     4
  -0.00011296 -0.00007752  0.50000000
   0.04179994  0.12541829  0.50000000
   0.12485970  0.12537665  0.50000000
   0.16658040 -0.00010185  0.50000000
   0.25012420  0.00032253  0.50000000
   0.29139513  0.12427410  0.50000000
   0.37572572  0.13226248  0.50000000
   0.41670902  0.00069199  0.50000000
   0.50015711  0.00011393  0.50000000
   0.54121908  0.12529430  0.50000000
   0.62453437  0.12526444  0.50000000
   0.66683622 -0.00013596  0.50000000
   0.74980335  0.00000859  0.50000000
   0.79180300  0.12546791  0.50000000
   0.87472238  0.12530062  0.50000000
   0.91666615 -0.00011390  0.50000000
  -0.00023048  0.24998901  0.50000000
   0.04191625  0.37445047  0.50000000
   0.12455954  0.37470492  0.50000000
   0.16710334  0.25098961  0.50000000
   0.25348402  0.25335842  0.50000000
   0.30954995  0.36821673  0.50000000
   0.41611642  0.27200838  0.50000000
   0.49979173  0.25129223  0.50000000
   0.54052969  0.37726144  0.50000000
   0.62451209  0.37557637  0.50000000
   0.66685419  0.25019987  0.50000000
   0.74993714  0.24980657  0.50000000
   0.79185946  0.37450801  0.50000000
   0.87478786  0.37459590  0.50000000
   0.91682370  0.25008813  0.50000000
  -0.00008509  0.50002834  0.50000000
   0.04170740  0.62554897  0.50000000
   0.12471888  0.62514026  0.50000000
   0.16689103  0.49905293  0.50000000
   0.25175176  0.49732072  0.50000000
   0.29311976  0.62414615  0.50000000
   0.37888712  0.60970220  0.50000000
   0.48773110  0.50630020  0.50000000
   0.53849436  0.62207732  0.50000000
   0.62440712  0.62441209  0.50000000
   0.66683023  0.49981521  0.50000000
   0.74986321  0.50006837  0.50000000
   0.79189500  0.62537227  0.50000000
   0.87469397  0.62524415  0.50000000
   0.91661368  0.49994389  0.50000000
  -0.00010861  0.74986506  0.50000000
   0.04196223  0.87452672  0.50000000
   0.12455823  0.87462635  0.50000000
   0.16692996  0.75007350  0.50000000
   0.25040171  0.75002486  0.50000000
   0.29165085  0.87447293  0.50000000
   0.37462724  0.87378278  0.50000000
   0.41603618  0.74337719  0.50000000
   0.50039846  0.75132342  0.50000000
   0.54167770  0.87412696  0.50000000
   0.62485419  0.87465236  0.50000000
   0.66664407  0.74998048  0.50000000
   0.74990165  0.74992308  0.50000000
   0.79187910  0.87457597  0.50000000
   0.87474609  0.87464579  0.50000000
   0.91677131  0.75003688  0.50000000
   0.39663268  0.43939988  0.50000000
Direct configuration=     5
  -0.00014940 -0.00010253  0.50000000
   0.04184294  0.12555322  0.50000000
   0.12481445  0.12549815  0.50000000
   0.16655257 -0.00013471  0.50000000
   0.25016427  0.00042657  0.50000000
   0.29130754  0.12403994  0.50000000
   0.37595982  0.13460516  0.50000000
   0.41672268  0.00091521  0.50000000
   0.50020779  0.00015067  0.50000000
   0.54107470  0.12538923  0.50000000
   0.62438417  0.12534974  0.50000000
   0.66689091 -0.00017982  0.50000000
   0.74973991  0.00001136  0.50000000
   0.79184698  0.12561884  0.50000000
   0.87463282  0.12539759  0.50000000
   0.91666598 -0.00015064  0.50000000
  -0.00030482  0.24998547  0.50000000
   0.04199676  0.37427321  0.50000000
   0.12441746  0.37460974  0.50000000
   0.16724420  0.25130884  0.50000000
   0.25460787  0.25444175  0.50000000
   0.30617905  0.36602864  0.50000000
   0.41593893  0.26620478  0.50000000
   0.49972455  0.25170907  0.50000000
   0.54016292  0.37799092  0.50000000
   0.62435471  0.37576229  0.50000000
   0.66691468  0.25026434  0.50000000
   0.74991686  0.24974418  0.50000000
   0.79192164  0.37434931  0.50000000
   0.87471943  0.37446555  0.50000000
   0.91687435  0.25011655  0.50000000
  -0.00011253  0.50003748  0.50000000
   0.04172054  0.62572606  0.50000000
   0.12462820  0.62518550  0.50000000
   0.16696341  0.49874744  0.50000000
   0.25231683  0.49645646  0.50000000
   0.29358849  0.62387072  0.50000000
   0.37852814  0.61605760  0.50000000
   0.49183780  0.50833247  0.50000000
   0.53747105  0.62113455  0.50000000
   0.62421587  0.62422244  0.50000000
   0.66688298  0.49975560  0.50000000
   0.74981908  0.50009042  0.50000000
   0.79196865  0.62549235  0.50000000
   0.87459525  0.62532291  0.50000000
   0.91659658  0.49992579  0.50000000
  -0.00014365  0.74982154  0.50000000
   0.04205757  0.87437406  0.50000000
   0.12441572  0.87450582  0.50000000
   0.16701489  0.75009721  0.50000000
   0.25053129  0.75003288  0.50000000
   0.29164575  0.87430291  0.50000000
   0.37450700  0.87339013  0.50000000
   0.41583281  0.74124085  0.50000000
   0.50052700  0.75175031  0.50000000
   0.54168125  0.87384534  0.50000000
   0.62480716  0.87454023  0.50000000
   0.66663678  0.74997419  0.50000000
   0.74986992  0.74989827  0.50000000
   0.79194762  0.87443919  0.50000000
   0.87466418  0.87453153  0.50000000
   0.91680506  0.75004877  0.50000000
   0.39635290  0.43920630  0.50000000
Direct configuration=     6
   0.00003755  0.00028462  0.50000000
   0.04035464  0.12280624  0.50000000
   0.12688693  0.12482855  0.50000000
   0.16571918  0.00082423  0.50000000
   0.25006582 -0.00327182  0.50000000
   0.29647962  0.13303355  0.50000000
   0.37459614  0.12494295  0.50000000
   0.41523045  0.00203511  0.50000000
   0.49962779 -0.00197479  0.50000000
   0.54323604  0.12969388  0.50000000
   0.62711127  0.12613172  0.50000000
   0.66560556  0.00108839  0.50000000
   0.75060032 -0.00025184  0.50000000
   0.79044210  0.12195121  0.50000000
   0.87709768  0.12417197  0.50000000
   0.91562728  0.00073863  0.50000000
   0.00062466  0.24983935  0.50000000
   0.03889138  0.37648483  0.50000000
   0.12788081  0.37372077  0.50000000
   0.17084567  0.25662609  0.50000000
   0.25040444  0.24394502  0.50000000
   0.28867336  0.37381495  0.50000000
   0.41687445  0.23996129  0.50000000
   0.49922075  0.25448804  0.50000000
   0.53914042  0.38563467  0.50000000
   0.62611882  0.37031849  0.50000000
   0.66462719  0.25275544  0.50000000
   0.75004387  0.24813079  0.50000000
   0.78977309  0.37742977  0.50000000
   0.87662003  0.37643261  0.50000000
   0.91532921  0.25070072  0.50000000
   0.00009805  0.49933928  0.50000000
   0.04097376  0.62149093  0.50000000
   0.12828766  0.62419152  0.50000000
   0.16961182  0.50392454  0.50000000
   0.25199067  0.48947317  0.50000000
   0.29403188  0.62717849  0.50000000
   0.37350767  0.62901325  0.50000000
   0.50483514  0.49160646  0.50000000
   0.54291204  0.63121131  0.50000000
   0.62289813  0.62783751  0.50000000
   0.66572270  0.50208534  0.50000000
   0.75083835  0.49919320  0.50000000
   0.78896627  0.62315493  0.50000000
   0.87778666  0.62450524  0.50000000
   0.91523432  0.50016203  0.50000000
  -0.00017747  0.74891816  0.50000000
   0.03889428  0.87589879  0.50000000
   0.12758240  0.87393403  0.50000000
   0.16629343  0.74995848  0.50000000
   0.24989998  0.74518029  0.50000000
   0.29162596  0.87862254  0.50000000
   0.37447720  0.86690277  0.50000000
   0.41980497  0.75454835  0.50000000
   0.49504100  0.74789236  0.50000000
   0.54189124  0.87851152  0.50000000
   0.62575882  0.87654936  0.50000000
   0.66563766  0.74774096  0.50000000
   0.74982758  0.74863554  0.50000000
   0.78969908  0.87682009  0.50000000
   0.87666470  0.87586585  0.50000000
   0.91594301  0.75012146  0.50000000
   0.39715482  0.44221679  0.50000000
Direct configuration=     7
  -0.00009231  0.00001570  0.50000000
   0.04138845  0.12471436  0.50000000
   0.12544733  0.12529367  0.50000000
   0.16629807  0.00015813  0.50000000
   0.25013420 -0.00070282  0.50000000
   0.29288696  0.12678635  0.50000000
   0.37554339  0.13165457  0.50000000
   0.41626700  0.00125720  0.50000000
   0.50003067 -0.00049839  0.50000000
   0.54173471  0.12670376  0.50000000
   0.62521695  0.12558854  0.50000000
   0.66649840  0.00020746  0.50000000
   0.75000266 -0.00006901  0.50000000
   0.79141796  0.12449884  0.50000000
   0.87538553  0.12502332  0.50000000
   0.91634879  0.00012092  0.50000000
  -0.00002098  0.24994085  0.50000000
   0.04104846  0.37494858  0.50000000
   0.12547508  0.37433827  0.50000000
   0.16834399  0.25293259  0.50000000
   0.25332425  0.25123633  0.50000000
   0.30083328  0.36840637  0.50000000
   0.41622461  0.25819071  0.50000000
   0.49957070  0.25255769  0.50000000
   0.53985068  0.38032512  0.50000000
   0.62489342  0.37409990  0.50000000
   0.66621614  0.25102506  0.50000000
   0.74995565  0.24925149  0.50000000
   0.79126553  0.37529000  0.50000000
   0.87529982  0.37506623  0.50000000
   0.91640250  0.25029494  0.50000000
  -0.00004823  0.49982427  0.50000000
   0.04149249  0.62443276  0.50000000
   0.12574571  0.62488196  0.50000000
   0.16777216  0.50032839  0.50000000
   0.25221723  0.49432395  0.50000000
   0.29372389  0.62488083  0.50000000
   0.37699502  0.62001392  0.50000000
   0.49580685  0.50322479  0.50000000
   0.53913259  0.62421173  0.50000000
   0.62381347  0.62532639  0.50000000
   0.66652866  0.50046704  0.50000000
   0.75013034  0.49981643  0.50000000
   0.79105180  0.62477857  0.50000000
   0.87556982  0.62507322  0.50000000
   0.91618058  0.49999793  0.50000000
  -0.00015398  0.74954567  0.50000000
   0.04109158  0.87483967  0.50000000
   0.12538274  0.87433121  0.50000000
   0.16679457  0.75005484  0.50000000
   0.25033850  0.74855102  0.50000000
   0.29163971  0.87562201  0.50000000
   0.37449790  0.87140906  0.50000000
   0.41704580  0.74530461  0.50000000
   0.49885172  0.75057219  0.50000000
   0.54174537  0.87527027  0.50000000
   0.62509777  0.87515376  0.50000000
   0.66633167  0.74929222  0.50000000
   0.74985699  0.74951267  0.50000000
   0.79126098  0.87516626  0.50000000
   0.87527509  0.87493900  0.50000000
   0.91654181  0.75007097  0.50000000
   0.39659779  0.44012562  0.50000000
Direct configuration=     8
  -0.00010124 -0.00000280  0.50000000
   0.04145957  0.12484562  0.50000000
   0.12534830  0.12532567  0.50000000
   0.16633790  0.00011230  0.50000000
   0.25013891 -0.00052609  0.50000000
   0.29263981  0.12635660  0.50000000
   0.37560855  0.13211627  0.50000000
   0.41633830  0.00120368  0.50000000
   0.50005839 -0.00039682  0.50000000
   0.54163143  0.12649807  0.50000000
   0.62508664  0.12555117  0.50000000
   0.66655982  0.00014686  0.50000000
   0.74996155 -0.00005644  0.50000000
   0.79148509  0.12467410  0.50000000
   0.87526774  0.12508188  0.50000000
   0.91639842  0.00007842  0.50000000
  -0.00006540  0.24994783  0.50000000
   0.04119685  0.37484290  0.50000000
   0.12530958  0.37438075  0.50000000
   0.16817190  0.25267850  0.50000000
   0.25352511  0.25173790  0.50000000
   0.30166977  0.36803431  0.50000000
   0.41617991  0.25944473  0.50000000
   0.49959477  0.25242490  0.50000000
   0.53989954  0.37995987  0.50000000
   0.62480912  0.37436003  0.50000000
   0.66632544  0.25090602  0.50000000
   0.74994958  0.24932859  0.50000000
   0.79136820  0.37514280  0.50000000
   0.87520900  0.37497224  0.50000000
   0.91647634  0.25026703  0.50000000
  -0.00005829  0.49985763  0.50000000
   0.04152818  0.62463513  0.50000000
   0.12557084  0.62492946  0.50000000
   0.16764561  0.50008101  0.50000000
   0.25223281  0.49465764  0.50000000
   0.29370271  0.62472277  0.50000000
   0.37723492  0.61939484  0.50000000
   0.49518578  0.50402403  0.50000000
   0.53887259  0.62373022  0.50000000
   0.62387644  0.62515364  0.50000000
   0.66658411  0.50035572  0.50000000
   0.75008163  0.49985931  0.50000000
   0.79119527  0.62489026  0.50000000
   0.87541732  0.62511229  0.50000000
   0.91624568  0.49998664  0.50000000
  -0.00015236  0.74958884  0.50000000
   0.04124274  0.87476681  0.50000000
   0.12523142  0.87435854  0.50000000
   0.16682905  0.75006147  0.50000000
   0.25036867  0.74878290  0.50000000
   0.29164065  0.87541560  0.50000000
   0.37449933  0.87171905  0.50000000
   0.41685599  0.74466872  0.50000000
   0.49911386  0.75075654  0.50000000
   0.54173534  0.87504730  0.50000000
   0.62505230  0.87505776  0.50000000
   0.66637941  0.74939893  0.50000000
   0.74985901  0.74957301  0.50000000
   0.79136842  0.87505249  0.50000000
   0.87517949  0.87487524  0.50000000
   0.91658300  0.75006750  0.50000000
   0.39655947  0.43998177  0.50000000
Direct configuration=     9
  -0.00058446 -0.00019682  0.50000000
   0.04341945  0.12683936  0.50000000
   0.12448512  0.12820607  0.50000000
   0.16723789 -0.00049955  0.50000000
   0.25100015  0.00539386  0.50000000
   0.29403271  0.12981261  0.50000000
   0.37822226  0.11964189  0.50000000
   0.41370121 -0.00220775  0.50000000
   0.49962311  0.00383034  0.50000000
   0.54216999  0.12837061  0.50000000
   0.62519200  0.12369392  0.50000000
   0.66618468  0.00035517  0.50000000
   0.74964450 -0.00026924  0.50000000
   0.79317934  0.12686628  0.50000000
   0.87309121  0.12534731  0.50000000
   0.91664556  0.00007638  0.50000000
  -0.00010958  0.24939915  0.50000000
   0.04372603  0.37453491  0.50000000
   0.12472764  0.37841505  0.50000000
   0.17251774  0.25059625  0.50000000
   0.25020243  0.24030625  0.50000000
   0.28583186  0.38237090  0.50000000
   0.41646514  0.24280056  0.50000000
   0.50065763  0.25280564  0.50000000
   0.54115721  0.38293695  0.50000000
   0.62374115  0.37795634  0.50000000
   0.66751334  0.25346503  0.50000000
   0.74942022  0.24685116  0.50000000
   0.79325814  0.37315585  0.50000000
   0.87302158  0.37519817  0.50000000
   0.91691650  0.25174686  0.50000000
  -0.00060093  0.49992832  0.50000000
   0.04341359  0.62675074  0.50000000
   0.12344663  0.62597584  0.50000000
   0.16799306  0.49999578  0.50000000
   0.25186926  0.49197269  0.50000000
   0.29089060  0.62567212  0.50000000
   0.37711054  0.62543391  0.50000000
   0.50075120  0.49273646  0.50000000
   0.54678568  0.63190897  0.50000000
   0.62227284  0.62938291  0.50000000
   0.66524478  0.49895342  0.50000000
   0.75005398  0.50076123  0.50000000
   0.79419579  0.62548558  0.50000000
   0.87246912  0.62555285  0.50000000
   0.91721779  0.50030352  0.50000000
  -0.00011075  0.74670877  0.50000000
   0.04341825  0.87509340  0.50000000
   0.12413226  0.87673808  0.50000000
   0.16699996  0.74931121  0.50000000
   0.24878644  0.74365587  0.50000000
   0.29159752  0.86921494  0.50000000
   0.37576479  0.86857569  0.50000000
   0.41672433  0.75970914  0.50000000
   0.49792884  0.75030186  0.50000000
   0.54105071  0.87404811  0.50000000
   0.62452262  0.87377524  0.50000000
   0.66686711  0.74573872  0.50000000
   0.74939672  0.74687122  0.50000000
   0.79328660  0.87408200  0.50000000
   0.87335133  0.87567713  0.50000000
   0.91695174  0.75038868  0.50000000
   0.39742614  0.44149606  0.50000000
Direct configuration=    10
  -0.00021644 -0.00004906  0.50000000
   0.04192682  0.12532095  0.50000000
   0.12514251  0.12601238  0.50000000
   0.16655246 -0.00003357  0.50000000
   0.25034423  0.00088526  0.50000000
   0.29297189  0.12718054  0.50000000
   0.37623167  0.12914229  0.50000000
   0.41570960  0.00039038  0.50000000
   0.49995461  0.00061096  0.50000000
   0.54175983  0.12694449  0.50000000
   0.62511176  0.12510839  0.50000000
   0.66647038  0.00019652  0.50000000
   0.74988596 -0.00010717  0.50000000
   0.79188901  0.12519673  0.50000000
   0.87474884  0.12514516  0.50000000
   0.91645734  0.00007794  0.50000000
  -0.00007593  0.24981702  0.50000000
   0.04179982  0.37476947  0.50000000
   0.12517084  0.37534255  0.50000000
   0.16920798  0.25218208  0.50000000
   0.25273296  0.24901252  0.50000000
   0.29789390  0.37145225  0.50000000
   0.41624791  0.25547665  0.50000000
   0.49984816  0.25251567  0.50000000
   0.54019938  0.38066963  0.50000000
   0.62455451  0.37521741  0.50000000
   0.66660865  0.25151611  0.50000000
   0.74982338  0.24873795  0.50000000
   0.79181877  0.37466910  0.50000000
   0.87468751  0.37502610  0.50000000
   0.91658127  0.25061983  0.50000000
  -0.00018766  0.49987449  0.50000000
   0.04197767  0.62513951  0.50000000
   0.12506441  0.62517892  0.50000000
   0.16772844  0.50006069  0.50000000
   0.25214614  0.49401753  0.50000000
   0.29303228  0.62494910  0.50000000
   0.37720526  0.62083460  0.50000000
   0.49651261  0.50133299  0.50000000
   0.54075913  0.62568009  0.50000000
   0.62349413  0.62616193  0.50000000
   0.66626480  0.50002140  0.50000000
   0.75007504  0.50007433  0.50000000
   0.79191062  0.62503219  0.50000000
   0.87471445  0.62521732  0.50000000
   0.91647744  0.50006219  0.50000000
  -0.00014244  0.74890221  0.50000000
   0.04176140  0.87484468  0.50000000
   0.12496938  0.87492584  0.50000000
   0.16686980  0.74988261  0.50000000
   0.24999146  0.74756058  0.50000000
   0.29163037  0.87393732  0.50000000
   0.37480102  0.87096966  0.50000000
   0.41682460  0.74825446  0.50000000
   0.49883135  0.75064814  0.50000000
   0.54157212  0.87480908  0.50000000
   0.62492602  0.87475200  0.50000000
   0.66649568  0.74852631  0.50000000
   0.74974880  0.74892888  0.50000000
   0.79182573  0.87482112  0.50000000
   0.87474365  0.87506641  0.50000000
   0.91667091  0.75014407  0.50000000
   0.39676609  0.44034279  0.50000000
Direct configuration=    11
  -0.00019005 -0.00003846  0.50000000
   0.04181977  0.12521205  0.50000000
   0.12518966  0.12585505  0.50000000
   0.16650330 -0.00000015  0.50000000
   0.25029719  0.00056192  0.50000000
   0.29289581  0.12699177  0.50000000
   0.37608891  0.12982365  0.50000000
   0.41585364  0.00057671  0.50000000
   0.49997839  0.00038007  0.50000000
   0.54173041  0.12684222  0.50000000
   0.62510600  0.12520983  0.50000000
   0.66649087  0.00018514  0.50000000
   0.74990328 -0.00009555  0.50000000
   0.79179647  0.12507699  0.50000000
   0.87486773  0.12513066  0.50000000
   0.91644384  0.00007805  0.50000000
  -0.00007352  0.24984699  0.50000000
   0.04166168  0.37478630  0.50000000
   0.12520263  0.37512220  0.50000000
   0.16897061  0.25229581  0.50000000
   0.25291444  0.24963692  0.50000000
   0.29875897  0.37066918  0.50000000
   0.41623233  0.25638575  0.50000000
   0.49979011  0.25249488  0.50000000
   0.54013068  0.38050702  0.50000000
   0.62461285  0.37502098  0.50000000
   0.66654376  0.25137633  0.50000000
   0.74985229  0.24887327  0.50000000
   0.79171554  0.37477763  0.50000000
   0.87480699  0.37501376  0.50000000
   0.91655723  0.25053900  0.50000000
  -0.00015802  0.49987063  0.50000000
   0.04187469  0.62502395  0.50000000
   0.12518044  0.62512177  0.50000000
   0.16770947  0.50006534  0.50000000
   0.25216600  0.49416418  0.50000000
   0.29318588  0.62489724  0.50000000
   0.37721206  0.62050474  0.50000000
   0.49620863  0.50194952  0.50000000
   0.54032691  0.62523336  0.50000000
   0.62358172  0.62593093  0.50000000
   0.66633796  0.50009799  0.50000000
   0.75007655  0.50002507  0.50000000
   0.79174673  0.62499967  0.50000000
   0.87487548  0.62519326  0.50000000
   0.91642434  0.50004488  0.50000000
  -0.00014471  0.74905952  0.50000000
   0.04164257  0.87482684  0.50000000
   0.12502941  0.87479586  0.50000000
   0.16686046  0.74992358  0.50000000
   0.25007788  0.74784062  0.50000000
   0.29163272  0.87427600  0.50000000
   0.37473190  0.87114135  0.50000000
   0.41683180  0.74743295  0.50000000
   0.49889607  0.75067298  0.50000000
   0.54160951  0.87486366  0.50000000
   0.62495495  0.87482205  0.50000000
   0.66646905  0.74872623  0.50000000
   0.74977405  0.74907645  0.50000000
   0.79172096  0.87487412  0.50000000
   0.87484350  0.87502261  0.50000000
   0.91665077  0.75012653  0.50000000
   0.39671875  0.44026008  0.50000000
Direct configuration=    12
  -0.00019610  0.00026757  0.50000000
   0.04160884  0.12539913  0.50000000
   0.12555672  0.12729741  0.50000000
   0.16701967  0.00077233  0.50000000
   0.25150199  0.00129779  0.50000000
   0.29142681  0.12187428  0.50000000
   0.37501937  0.12410853  0.50000000
   0.41702966 -0.00129197  0.50000000
   0.49939919  0.00092052  0.50000000
   0.54205579  0.12733100  0.50000000
   0.62397779  0.12540230  0.50000000
   0.66676910 -0.00079209  0.50000000
   0.74955297  0.00019074  0.50000000
   0.79136829  0.12491843  0.50000000
   0.87507903  0.12593177  0.50000000
   0.91652076 -0.00007280  0.50000000
  -0.00003511  0.24942632  0.50000000
   0.04253247  0.37492942  0.50000000
   0.12428373  0.37507540  0.50000000
   0.16911335  0.24810115  0.50000000
   0.25406464  0.25375223  0.50000000
   0.29418073  0.37615668  0.50000000
   0.41448440  0.25432796  0.50000000
   0.50039852  0.25240844  0.50000000
   0.54263903  0.37701864  0.50000000
   0.62490858  0.37648967  0.50000000
   0.66732192  0.25177974  0.50000000
   0.75007728  0.24833944  0.50000000
   0.79138593  0.37431187  0.50000000
   0.87545939  0.37412337  0.50000000
   0.91698183  0.25247552  0.50000000
  -0.00005037  0.50056083  0.50000000
   0.04112000  0.62534755  0.50000000
   0.12378612  0.62478116  0.50000000
   0.16639820  0.49902691  0.50000000
   0.25121524  0.49800920  0.50000000
   0.29219010  0.62541144  0.50000000
   0.37925212  0.62231575  0.50000000
   0.49856971  0.50122657  0.50000000
   0.54186022  0.62972972  0.50000000
   0.62446820  0.62711031  0.50000000
   0.66593880  0.50065354  0.50000000
   0.74989740  0.50011856  0.50000000
   0.79191017  0.62565036  0.50000000
   0.87485892  0.62502484  0.50000000
   0.91656039  0.50021525  0.50000000
   0.00027048  0.74707203  0.50000000
   0.04244924  0.87478510  0.50000000
   0.12392319  0.87594480  0.50000000
   0.16655190  0.74925576  0.50000000
   0.24927726  0.74723644  0.50000000
   0.29143783  0.87340739  0.50000000
   0.37511069  0.87319883  0.50000000
   0.41489103  0.74925814  0.50000000
   0.50031288  0.75153451  0.50000000
   0.54156387  0.87439761  0.50000000
   0.62480248  0.87435781  0.50000000
   0.66711636  0.74749627  0.50000000
   0.75013010  0.74665368  0.50000000
   0.79150088  0.87400723  0.50000000
   0.87519872  0.87378487  0.50000000
   0.91672636  0.75065900  0.50000000
   0.39677520  0.43949770  0.50000000
Direct configuration=    13
  -0.00019189  0.00005452  0.50000000
   0.04175568  0.12526889  0.50000000
   0.12530118  0.12629328  0.50000000
   0.16666019  0.00023455  0.50000000
   0.25066324  0.00078549  0.50000000
   0.29244949  0.12543694  0.50000000
   0.37576396  0.12808724  0.50000000
   0.41621095  0.00000895  0.50000000
   0.49980241  0.00054428  0.50000000
   0.54182927  0.12699072  0.50000000
   0.62476322  0.12526831  0.50000000
   0.66657540 -0.00011177  0.50000000
   0.74979684 -0.00000856  0.50000000
   0.79166638  0.12502881  0.50000000
   0.87493193  0.12537406  0.50000000
   0.91646721  0.00003221  0.50000000
  -0.00006185  0.24971918  0.50000000
   0.04192625  0.37482978  0.50000000